 &FCI NORB=   2,NELEC= 2,MS2=0,
  ORBSYM=1,1,
  ISYM=1,
 &END
 0.8443204377479885    1    1    1    1
 -0.006301592077880502    1    1    2    1
 0.4689717823392499    1    1    2    2
 -0.006301592077880227    2    1    1    1
 0.01039616818241937    2    1    2    1
 -0.006301592077880261    2    1    2    2
 0.4689717823392502    2    2    1    1
 -0.006301592077881057    2    2    2    1
 0.844320437747989    2    2    2    2
 -0.866407131757418    1    1  0  0
 -0.3289872723320567    2    1  0  0
 -0.866407131757418    2    2  0  0
 0.625  0  0  0  0
